Ethane written by topology at 2020-09-29 17:00:30.532281

8 atoms
7 bonds
12 angles
9 dihedrals


2 atom types
2 bond types
2 angle types
1 dihedral types

0.000000 7.140000 xlo xhi
0.000000 7.938000 ylo yhi
0.000000 6.646000 zlo zhi

Masses

1	12.010780	# opls_135
2	1.007947	# opls_140

Pair Coeffs # lj

1	0.06600	3.50000
2	0.03000	2.50000

Bond Coeffs

1	268.00000	1.52900
2	340.00000	1.09000

Angle Coeffs

1	37.50000	110.70000
2	33.00000	107.80000

Dihedral Coeffs
