Ethane written by topology at 2020-09-29 23:37:45.235183

8 atoms
7 bonds
12 angles
9 dihedrals


2 atom types
2 bond types
2 angle types
1 dihedral types

0.000000 7.140000 xlo xhi
0.000000 7.938000 ylo yhi
0.000000 6.646000 zlo zhi

Masses

1	12.010780	# opls_135
2	1.007947	# opls_140

Pair Coeffs # lj

1	0.06600	3.50000
2	0.03000	2.50000

Bond Coeffs

1	268.00000	1.52900
2	340.00000	1.09000

Angle Coeffs

1	37.50000	110.70000
2	33.00000	107.80000

Dihedral Coeffs
1	0.00000 kcal/mol	-0.000000 kcal/mol	0.150000 kcal/mol	-0.00000 kcal/mol

Atoms

1	0	1	-0.180000	0.000000	-1.400000	-0.000000
2	0	2	0.060000	-1.070000	-1.400000	-0.000000
3	0	2	0.060000	0.357000	-2.169000	0.653000
4	0	2	0.060000	0.357000	-1.581000	-0.993000
5	0	1	-0.180000	0.000000	0.000000	0.000000
6	0	2	0.060000	1.070000	0.000000	0.000000
7	0	2	0.060000	-0.357000	0.769000	0.653000
8	0	2	0.060000	-0.357000	0.181000	-0.993000

Bonds

1	1	1	5
2	2	2	1
3	2	3	1
4	2	4	1
5	2	5	6
6	2	5	8
7	2	7	5

Angles

1	1	1	5	6
2	1	1	5	7
3	1	1	5	8
4	2	2	1	3
5	2	2	1	4
6	1	2	1	5
7	2	3	1	4
8	1	3	1	5
9	1	4	1	5
10	2	6	5	7
11	2	6	5	8
12	2	7	5	8

Dihedrals

1	1	2	1	5	6
2	1	2	1	5	7
3	1	2	1	5	8
4	1	3	1	5	6
5	1	3	1	5	7
6	1	3	1	5	8
7	1	4	1	5	6
8	1	4	1	5	7
9	1	4	1	5	8
